
     Program PWSCF v.6.3 starts on  4Dec2020 at  0:39:10 

     This program is part of the open-source Quantum ESPRESSO suite
     for quantum simulation of materials; please cite
         "P. Giannozzi et al., J. Phys.:Condens. Matter 21 395502 (2009);
         "P. Giannozzi et al., J. Phys.:Condens. Matter 29 465901 (2017);
          URL http://www.quantum-espresso.org", 
     in publications or presentations arising from this work. More details at
     http://www.quantum-espresso.org/quote

     Serial version
     Waiting for input...
     Reading input from standard input

     Current dimensions of program PWSCF are:
     Max number of different atomic species (ntypx) = 10
     Max number of k-points (npk) =  40000
     Max angular momentum in pseudopotentials (lmaxx) =  3
               file O.pbe-n-kjpaw_psl.1.0.0.UPF: wavefunction(s)  2S 2P renormalized

     gamma-point specific algorithms are used

     G-vector sticks info
     --------------------
     sticks:   dense  smooth     PW     G-vecs:    dense   smooth      PW
     Sum       11369    5689   1433               911913   322453   40339



     bravais-lattice index     =            0
     lattice parameter (alat)  =      18.8973  a.u.
     unit-cell volume          =    6748.3346 (a.u.)^3
     number of atoms/cell      =            2
     number of atomic types    =            1
     number of electrons       =        12.00
     number of Kohn-Sham states=           10
     kinetic-energy cutoff     =      50.0000  Ry
     charge density cutoff     =     400.0000  Ry
     convergence threshold     =      1.0E-06
     mixing beta               =       0.2000
     number of iterations used =            8  plain     mixing
     Exchange-correlation      = SLA PW PBX PBC ( 1  4  3  4 0 0)
     nstep                     =           50


     celldm(1)=  18.897261  celldm(2)=   0.000000  celldm(3)=   0.000000
     celldm(4)=   0.000000  celldm(5)=   0.000000  celldm(6)=   0.000000

     crystal axes: (cart. coord. in units of alat)
               a(1) = (   1.000000   0.000000   0.000000 )  
               a(2) = (   0.000000   1.000000   0.000000 )  
               a(3) = (   0.000000   0.000000   1.000000 )  

     reciprocal axes: (cart. coord. in units 2 pi/alat)
               b(1) = (  1.000000  0.000000  0.000000 )  
               b(2) = (  0.000000  1.000000  0.000000 )  
               b(3) = (  0.000000  0.000000  1.000000 )  


     PseudoPot. # 1 for O  read from file:
     ./O.pbe-n-kjpaw_psl.1.0.0.UPF
     MD5 check sum: e99d9cef9b487d1ca56f5b95ecd0fd7a
     Pseudo is Projector augmented-wave + core cor, Zval =  6.0
     Generated using "atomic" code by A. Dal Corso v.6.3
     Shape of augmentation charge: PSQ
     Using radial grid of 1095 points,  4 beta functions with: 
                l(1) =   0
                l(2) =   0
                l(3) =   1
                l(4) =   1
     Q(r) pseudized with 0 coefficients 


     atomic species   valence    mass     pseudopotential
        O              6.00    15.99900     O ( 1.00)

      8 Sym. Ops. (no inversion) found



   Cartesian axes

     site n.     atom                  positions (alat units)
         1           O   tau(   1) = (   0.0000000   0.0000000   0.0000000  )
         2           O   tau(   2) = (   0.0000000   0.0000000   0.1230474  )

     number of k points=     1  gaussian smearing, width (Ry)=  0.0200
                       cart. coord. in units 2pi/alat
        k(    1) = (   0.0000000   0.0000000   0.0000000), wk =   2.0000000

     Dense  grid:   455957 G-vectors     FFT dimensions: ( 125, 125, 125)

     Smooth grid:   161227 G-vectors     FFT dimensions: (  90,  90,  90)

     Estimated max dynamical RAM per process >     678.69 MB

     Initial potential from superposition of free atoms
     Check: negative starting charge=   -0.000764

     starting charge   12.00000, renormalised to   12.00000

     negative rho (up, down):  7.641E-04 0.000E+00
     Starting wfcs are    8 randomized atomic wfcs +    2 random wfcs

     total cpu time spent up to now is        2.7 secs

     Self-consistent Calculation

     iteration #  1     ecut=    50.00 Ry     beta= 0.20
     Davidson diagonalization with overlap
     ethr =  1.00E-02,  avg # of iterations =  6.0

     Threshold (ethr) on eigenvalues was too large:
     Diagonalizing with lowered threshold

     Davidson diagonalization with overlap
     ethr =  4.27E-04,  avg # of iterations =  4.0

     negative rho (up, down):  8.325E-04 0.000E+00

     total cpu time spent up to now is        6.2 secs

     total energy              =     -82.98414750 Ry
     Harris-Foulkes estimate   =     -82.99470297 Ry
     estimated scf accuracy    <       0.04686748 Ry

     iteration #  2     ecut=    50.00 Ry     beta= 0.20
     Davidson diagonalization with overlap
     ethr =  3.91E-04,  avg # of iterations =  1.0

     negative rho (up, down):  1.542E-03 0.000E+00

     total cpu time spent up to now is        8.4 secs

     total energy              =     -82.96863107 Ry
     Harris-Foulkes estimate   =     -82.98444890 Ry
     estimated scf accuracy    <       0.02707697 Ry

     iteration #  3     ecut=    50.00 Ry     beta= 0.20
     Davidson diagonalization with overlap
     ethr =  2.26E-04,  avg # of iterations =  3.0

     negative rho (up, down):  1.205E-03 0.000E+00

     total cpu time spent up to now is       10.9 secs

     total energy              =     -82.97572903 Ry
     Harris-Foulkes estimate   =     -82.97711987 Ry
     estimated scf accuracy    <       0.00283094 Ry

     iteration #  4     ecut=    50.00 Ry     beta= 0.20
     Davidson diagonalization with overlap
     ethr =  2.36E-05,  avg # of iterations =  4.0

     negative rho (up, down):  1.345E-03 0.000E+00

     total cpu time spent up to now is       13.2 secs

     total energy              =     -82.97623773 Ry
     Harris-Foulkes estimate   =     -82.97602444 Ry
     estimated scf accuracy    <       0.00076928 Ry

     iteration #  5     ecut=    50.00 Ry     beta= 0.20
     Davidson diagonalization with overlap
     ethr =  6.41E-06,  avg # of iterations =  9.0

     negative rho (up, down):  1.282E-03 0.000E+00

     total cpu time spent up to now is       15.5 secs

     total energy              =     -82.97580763 Ry
     Harris-Foulkes estimate   =     -82.97628382 Ry
     estimated scf accuracy    <       0.00068126 Ry

     iteration #  6     ecut=    50.00 Ry     beta= 0.20
     Davidson diagonalization with overlap
     ethr =  5.68E-06,  avg # of iterations =  3.0

     negative rho (up, down):  1.208E-03 0.000E+00

     total cpu time spent up to now is       17.7 secs

     total energy              =     -82.97606974 Ry
     Harris-Foulkes estimate   =     -82.97607556 Ry
     estimated scf accuracy    <       0.00005652 Ry

     iteration #  7     ecut=    50.00 Ry     beta= 0.20
     Davidson diagonalization with overlap
     ethr =  4.71E-07,  avg # of iterations =  4.0

     negative rho (up, down):  1.164E-03 0.000E+00

     total cpu time spent up to now is       20.0 secs

     total energy              =     -82.97607841 Ry
     Harris-Foulkes estimate   =     -82.97608912 Ry
     estimated scf accuracy    <       0.00005887 Ry

     iteration #  8     ecut=    50.00 Ry     beta= 0.20
     Davidson diagonalization with overlap
     ethr =  4.71E-07,  avg # of iterations =  1.0

     negative rho (up, down):  1.126E-03 0.000E+00

     total cpu time spent up to now is       22.2 secs

     total energy              =     -82.97605802 Ry
     Harris-Foulkes estimate   =     -82.97607879 Ry
     estimated scf accuracy    <       0.00004031 Ry

     iteration #  9     ecut=    50.00 Ry     beta= 0.20
     Davidson diagonalization with overlap
     ethr =  3.36E-07,  avg # of iterations =  1.0

     negative rho (up, down):  1.108E-03 0.000E+00

     total cpu time spent up to now is       24.4 secs

     total energy              =     -82.97605704 Ry
     Harris-Foulkes estimate   =     -82.97606038 Ry
     estimated scf accuracy    <       0.00000634 Ry

     iteration # 10     ecut=    50.00 Ry     beta= 0.20
     Davidson diagonalization with overlap
     ethr =  5.28E-08,  avg # of iterations =  4.0

     negative rho (up, down):  1.102E-03 0.000E+00

     total cpu time spent up to now is       26.6 secs

     End of self-consistent calculation

          k = 0.0000 0.0000 0.0000 ( 20170 PWs)   bands (ev):

   -31.9239 -19.7777 -12.9509 -12.3998 -12.3998  -5.8475  -5.8475  -0.2893
     0.9535   1.1545

     the Fermi energy is    -5.8475 ev

!    total energy              =     -82.97606162 Ry
     Harris-Foulkes estimate   =     -82.97606140 Ry
     estimated scf accuracy    <       0.00000034 Ry

     total all-electron energy =      -300.669842 Ry

     The total energy is the sum of the following terms:

     one-electron contribution =    -122.13177551 Ry
     hartree contribution      =      63.30334127 Ry
     xc contribution           =     -14.39143093 Ry
     ewald contribution        =       9.46720170 Ry
     one-center paw contrib.   =     -19.20083057 Ry
     smearing contrib. (-TS)   =      -0.02256758 Ry

     convergence has been achieved in  10 iterations

     negative rho (up, down):  1.102E-03 0.000E+00

     Forces acting on atoms (cartesian axes, Ry/au):

     atom    1 type  1   force =     0.00000000    0.00000000    0.00001192
     atom    2 type  1   force =     0.00000000    0.00000000   -0.00001192

     Total force =     0.000017     Total SCF correction =     0.002219
     SCF correction compared to forces is large: reduce conv_thr to get better values


     Computing stress (Cartesian axis) and pressure


     negative rho (up, down):  1.102E-03 0.000E+00
          total   stress  (Ry/bohr**3)                   (kbar)     P=    0.03
   0.00000034   0.00000000   0.00000000          0.05      0.00      0.00
   0.00000000   0.00000034   0.00000000          0.00      0.05      0.00
   0.00000000   0.00000000  -0.00000006          0.00      0.00     -0.01


     BFGS Geometry Optimization

     bfgs converged in   1 scf cycles and   0 bfgs steps
     (criteria: energy <  1.0E-04 Ry, force <  1.0E-03 Ry/Bohr)

     End of BFGS Geometry Optimization

     Final energy   =     -82.9760616215 Ry
Begin final coordinates

ATOMIC_POSITIONS (angstrom)
O        0.000000000   0.000000000   0.000000000
O        0.000000000   0.000000000   1.230473904
End final coordinates



     Writing output data file O2.save/

     init_run     :      1.95s CPU      2.40s WALL (       1 calls)
     electrons    :     19.28s CPU     23.88s WALL (       1 calls)
     forces       :      1.36s CPU      1.59s WALL (       1 calls)
     stress       :      2.30s CPU      2.93s WALL (       1 calls)

     Called by init_run:
     wfcinit      :      0.12s CPU      0.13s WALL (       1 calls)
     potinit      :      0.88s CPU      1.06s WALL (       1 calls)
     hinit0       :      0.58s CPU      0.63s WALL (       1 calls)

     Called by electrons:
     c_bands      :      3.75s CPU      3.77s WALL (      11 calls)
     sum_band     :      4.45s CPU      6.40s WALL (      11 calls)
     v_of_rho     :      6.81s CPU      7.61s WALL (      11 calls)
     newd         :      2.67s CPU      4.67s WALL (      11 calls)
     PAW_pot      :      0.58s CPU      0.57s WALL (      11 calls)
     mix_rho      :      1.16s CPU      1.21s WALL (      11 calls)

     Called by c_bands:
     init_us_2    :      0.06s CPU      0.06s WALL (      23 calls)
     regterg      :      3.73s CPU      3.71s WALL (      11 calls)

     Called by sum_band:
     sum_band:bec :      0.00s CPU      0.00s WALL (      11 calls)
     addusdens    :      2.89s CPU      4.85s WALL (      11 calls)

     Called by *egterg:
     h_psi        :      3.28s CPU      3.19s WALL (      52 calls)
     s_psi        :      0.03s CPU      0.06s WALL (      52 calls)
     g_psi        :      0.03s CPU      0.01s WALL (      40 calls)
     rdiaghg      :      0.02s CPU      0.01s WALL (      50 calls)

     Called by h_psi:
     h_psi:pot    :      3.25s CPU      3.18s WALL (      52 calls)
     h_psi:calbec :      0.25s CPU      0.16s WALL (      52 calls)
     vloc_psi     :      2.94s CPU      2.96s WALL (      52 calls)
     add_vuspsi   :      0.06s CPU      0.06s WALL (      52 calls)

     General routines
     calbec       :      0.34s CPU      0.24s WALL (      68 calls)
     fft          :      6.39s CPU      6.39s WALL (     141 calls)
     ffts         :      0.25s CPU      0.27s WALL (      22 calls)
     fftw         :      2.72s CPU      2.59s WALL (     377 calls)
     interpolate  :      0.73s CPU      0.76s WALL (      11 calls)


     PWSCF        :    25.16s CPU        31.23s WALL


   This run was terminated on:   0:39:42   4Dec2020            

=------------------------------------------------------------------------------=
   JOB DONE.
=------------------------------------------------------------------------------=
