
     Program PWSCF v.6.3 starts on  3Dec2020 at 11:35:20 

     This program is part of the open-source Quantum ESPRESSO suite
     for quantum simulation of materials; please cite
         "P. Giannozzi et al., J. Phys.:Condens. Matter 21 395502 (2009);
         "P. Giannozzi et al., J. Phys.:Condens. Matter 29 465901 (2017);
          URL http://www.quantum-espresso.org", 
     in publications or presentations arising from this work. More details at
     http://www.quantum-espresso.org/quote

     Serial version
     Waiting for input...
     Reading input from standard input
Warning: card  &IONS ignored
Warning: card  / ignored
Warning: card  &CELL ignored
Warning: card     PRESS = 0, ignored
Warning: card  / ignored

     Current dimensions of program PWSCF are:
     Max number of different atomic species (ntypx) = 10
     Max number of k-points (npk) =  40000
     Max angular momentum in pseudopotentials (lmaxx) =  3
               file P.pbe-n-kjpaw_psl.0.1.UPF: wavefunction(s)  3P renormalized
               file O.pbe-n-kjpaw_psl.1.0.0.UPF: wavefunction(s)  2S 2P renormalized

     G-vector sticks info
     --------------------
     sticks:   dense  smooth     PW     G-vecs:    dense   smooth      PW
     Sum         401     401    137                34715    34715    7075



     bravais-lattice index     =            0
     lattice parameter (alat)  =       8.6911  a.u.
     unit-cell volume          =    2405.9840 (a.u.)^3
     number of atoms/cell      =            5
     number of atomic types    =            2
     number of electrons       =        26.00
     number of Kohn-Sham states=           17
     kinetic-energy cutoff     =      25.0000  Ry
     charge density cutoff     =      90.0000  Ry
     convergence threshold     =      1.0E-06
     mixing beta               =       0.2000
     number of iterations used =            8  plain     mixing
     Exchange-correlation      = SLA PW PBX PBC ( 1  4  3  4 0 0)

     celldm(1)=   8.691084  celldm(2)=   0.000000  celldm(3)=   0.000000
     celldm(4)=   0.000000  celldm(5)=   0.000000  celldm(6)=   0.000000

     crystal axes: (cart. coord. in units of alat)
               a(1) = (   1.011184  -0.000005  -0.001237 )  
               a(2) = (   0.000001   0.721558  -0.000076 )  
               a(3) = (  -0.005627  -0.000469   5.023079 )  

     reciprocal axes: (cart. coord. in units 2 pi/alat)
               b(1) = (  0.988941 -0.000002  0.001108 )  
               b(2) = (  0.000007  1.385890  0.000129 )  
               b(3) = (  0.000244  0.000021  0.199081 )  


     PseudoPot. # 1 for P  read from file:
     ./P.pbe-n-kjpaw_psl.0.1.UPF
     MD5 check sum: eecb1e256d89c9ed77ae4f76a10d2248
     Pseudo is Projector augmented-wave + core cor, Zval =  5.0
     Generated using "atomic" code by A. Dal Corso v.5.0.2 svn rev. 9415
     Shape of augmentation charge: PSQ
     Using radial grid of 1147 points,  4 beta functions with: 
                l(1) =   0
                l(2) =   0
                l(3) =   1
                l(4) =   1
     Q(r) pseudized with 0 coefficients 


     PseudoPot. # 2 for O  read from file:
     ./O.pbe-n-kjpaw_psl.1.0.0.UPF
     MD5 check sum: e99d9cef9b487d1ca56f5b95ecd0fd7a
     Pseudo is Projector augmented-wave + core cor, Zval =  6.0
     Generated using "atomic" code by A. Dal Corso v.6.3
     Shape of augmentation charge: PSQ
     Using radial grid of 1095 points,  4 beta functions with: 
                l(1) =   0
                l(2) =   0
                l(3) =   1
                l(4) =   1
     Q(r) pseudized with 0 coefficients 


     atomic species   valence    mass     pseudopotential
        P              5.00    30.97376     P ( 1.00)
        O              6.00    15.99900     O ( 1.00)

     No symmetry found



   Cartesian axes

     site n.     atom                  positions (alat units)
         1           P   tau(   1) = (   0.0008858   0.3479560   0.0343524  )
         2           P   tau(   2) = (   0.1809332   0.3479283   0.4956348  )
         3           P   tau(   3) = (   0.5069592   0.7087070   0.4952012  )
         4           P   tau(   4) = (   0.6859620   0.7087311   0.0334778  )
         5           O   tau(   5) = (   1.0101117  -0.0000941   0.9561582  )

     number of k points=   216  gaussian smearing, width (Ry)=  0.0200

     Number of k-points >= 100: set verbosity='high' to print them.

     Dense  grid:    34715 G-vectors     FFT dimensions: (  27,  20, 135)

     Estimated max dynamical RAM per process >     340.03 MB

     Check: negative/imaginary core charge=   -0.000079    0.000000

     Initial potential from superposition of free atoms
     Check: negative starting charge=   -0.075901

     starting charge   25.99936, renormalised to   26.00000

     negative rho (up, down):  7.590E-02 0.000E+00
     Starting wfcs are   20 randomized atomic wfcs

     total cpu time spent up to now is       11.9 secs

     Self-consistent Calculation

     iteration #  1     ecut=    25.00 Ry     beta= 0.20
     Davidson diagonalization with overlap
     ethr =  1.00E-02,  avg # of iterations =  3.0

     negative rho (up, down):  7.670E-02 0.000E+00

     total cpu time spent up to now is       41.0 secs

     total energy              =    -262.64323817 Ry
     Harris-Foulkes estimate   =    -262.96694308 Ry
     estimated scf accuracy    <       1.00004593 Ry

     iteration #  2     ecut=    25.00 Ry     beta= 0.20
     Davidson diagonalization with overlap
     ethr =  3.85E-03,  avg # of iterations =  3.0

     negative rho (up, down):  7.463E-02 0.000E+00

     total cpu time spent up to now is       63.5 secs

     total energy              =    -262.14652696 Ry
     Harris-Foulkes estimate   =    -263.44966755 Ry
     estimated scf accuracy    <      19.09732188 Ry

     iteration #  3     ecut=    25.00 Ry     beta= 0.20
     Davidson diagonalization with overlap
     ethr =  3.85E-03,  avg # of iterations =  2.8

     negative rho (up, down):  7.322E-02 0.000E+00

     total cpu time spent up to now is       85.4 secs

     total energy              =    -262.90840562 Ry
     Harris-Foulkes estimate   =    -262.91916926 Ry
     estimated scf accuracy    <       0.09260629 Ry

     iteration #  4     ecut=    25.00 Ry     beta= 0.20
     Davidson diagonalization with overlap
     ethr =  3.56E-04,  avg # of iterations =  2.7

     negative rho (up, down):  7.145E-02 0.000E+00

     total cpu time spent up to now is      106.8 secs

     total energy              =    -262.90609302 Ry
     Harris-Foulkes estimate   =    -262.91449332 Ry
     estimated scf accuracy    <       0.04440996 Ry

     iteration #  5     ecut=    25.00 Ry     beta= 0.20
     Davidson diagonalization with overlap
     ethr =  1.71E-04,  avg # of iterations =  2.3

     negative rho (up, down):  7.175E-02 0.000E+00

     total cpu time spent up to now is      128.2 secs

     total energy              =    -262.91003410 Ry
     Harris-Foulkes estimate   =    -262.91050356 Ry
     estimated scf accuracy    <       0.00530141 Ry

     iteration #  6     ecut=    25.00 Ry     beta= 0.20
     Davidson diagonalization with overlap
     ethr =  2.04E-05,  avg # of iterations =  4.4

     negative rho (up, down):  7.200E-02 0.000E+00

     total cpu time spent up to now is      152.1 secs

     total energy              =    -262.91056427 Ry
     Harris-Foulkes estimate   =    -262.91063733 Ry
     estimated scf accuracy    <       0.00101920 Ry

     iteration #  7     ecut=    25.00 Ry     beta= 0.20
     Davidson diagonalization with overlap
     ethr =  3.92E-06,  avg # of iterations =  2.8

     negative rho (up, down):  7.219E-02 0.000E+00

     total cpu time spent up to now is      173.4 secs

     total energy              =    -262.91061773 Ry
     Harris-Foulkes estimate   =    -262.91062117 Ry
     estimated scf accuracy    <       0.00046601 Ry

     iteration #  8     ecut=    25.00 Ry     beta= 0.20
     Davidson diagonalization with overlap
     ethr =  1.79E-06,  avg # of iterations =  1.7

     negative rho (up, down):  7.225E-02 0.000E+00

     total cpu time spent up to now is      193.0 secs

     total energy              =    -262.91064897 Ry
     Harris-Foulkes estimate   =    -262.91065099 Ry
     estimated scf accuracy    <       0.00002562 Ry

     iteration #  9     ecut=    25.00 Ry     beta= 0.20
     Davidson diagonalization with overlap
     ethr =  9.85E-08,  avg # of iterations =  3.0

     negative rho (up, down):  7.222E-02 0.000E+00

     total cpu time spent up to now is      218.8 secs

     total energy              =    -262.91065560 Ry
     Harris-Foulkes estimate   =    -262.91065653 Ry
     estimated scf accuracy    <       0.00000875 Ry

     iteration # 10     ecut=    25.00 Ry     beta= 0.20
     Davidson diagonalization with overlap
     ethr =  3.37E-08,  avg # of iterations =  2.5

     negative rho (up, down):  7.224E-02 0.000E+00

     total cpu time spent up to now is      242.3 secs

     total energy              =    -262.91065687 Ry
     Harris-Foulkes estimate   =    -262.91065818 Ry
     estimated scf accuracy    <       0.00000569 Ry

     iteration # 11     ecut=    25.00 Ry     beta= 0.20
     Davidson diagonalization with overlap
     ethr =  2.19E-08,  avg # of iterations =  2.0

     negative rho (up, down):  7.222E-02 0.000E+00

     total cpu time spent up to now is      263.8 secs

     End of self-consistent calculation

     Number of k-points >= 100: set verbosity='high' to print the bands.

     the Fermi energy is    -3.4560 ev

!    total energy              =    -262.91065749 Ry
     Harris-Foulkes estimate   =    -262.91065758 Ry
     estimated scf accuracy    <       0.00000062 Ry

     total all-electron energy =     -2886.411334 Ry

     The total energy is the sum of the following terms:

     one-electron contribution =    -627.35455426 Ry
     hartree contribution      =     318.94281784 Ry
     xc contribution           =     -30.17756791 Ry
     ewald contribution        =     247.24651049 Ry
     one-center paw contrib.   =    -171.55060979 Ry
     smearing contrib. (-TS)   =      -0.01725387 Ry

     convergence has been achieved in  11 iterations

     negative rho (up, down):  7.222E-02 0.000E+00

     Forces acting on atoms (cartesian axes, Ry/au):

     atom    1 type  1   force =    -0.01250096    0.00003479    0.01009862
     atom    2 type  1   force =    -0.00625878   -0.00231726    0.04077280
     atom    3 type  1   force =     0.00019407    0.00042935    0.01086213
     atom    4 type  1   force =     0.00532431   -0.00026745    0.00024263
     atom    5 type  2   force =     0.01324137    0.00212057   -0.06197617

     Total force =     0.078312     Total SCF correction =     0.001357


     Computing stress (Cartesian axis) and pressure


     negative rho (up, down):  7.222E-02 0.000E+00
          total   stress  (Ry/bohr**3)                   (kbar)     P= -160.90
  -0.00109473   0.00000311   0.00001550       -161.04      0.46      2.28
   0.00000311  -0.00105602  -0.00000154          0.46   -155.35     -0.23
   0.00001550  -0.00000154  -0.00113054          2.28     -0.23   -166.31


     Writing output data file phosphorene.save/

     init_run     :     11.19s CPU     11.37s WALL (       1 calls)
     electrons    :    250.67s CPU    251.84s WALL (       1 calls)
     forces       :      4.12s CPU      4.13s WALL (       1 calls)
     stress       :      7.89s CPU      7.90s WALL (       1 calls)

     Called by init_run:
     wfcinit      :      9.62s CPU      9.74s WALL (       1 calls)
     potinit      :      0.55s CPU      0.55s WALL (       1 calls)
     hinit0       :      0.98s CPU      1.01s WALL (       1 calls)

     Called by electrons:
     c_bands      :    215.08s CPU    216.05s WALL (      11 calls)
     sum_band     :     33.52s CPU     33.63s WALL (      11 calls)
     v_of_rho     :      0.36s CPU      0.34s WALL (      12 calls)
     newd         :      0.31s CPU      0.37s WALL (      12 calls)
     PAW_pot      :      1.59s CPU      1.61s WALL (      12 calls)
     mix_rho      :      0.00s CPU      0.04s WALL (      11 calls)

     Called by c_bands:
     init_us_2    :      5.14s CPU      4.87s WALL (    5400 calls)
     cegterg      :    208.03s CPU    208.43s WALL (    2376 calls)

     Called by sum_band:
     sum_band:bec :      0.00s CPU      0.02s WALL (    2376 calls)
     addusdens    :      0.31s CPU      0.27s WALL (      11 calls)

     Called by *egterg:
     h_psi        :    149.70s CPU    149.95s WALL (    9136 calls)
     s_psi        :     14.95s CPU     15.86s WALL (    9136 calls)
     g_psi        :      1.00s CPU      0.89s WALL (    6544 calls)
     cdiaghg      :      3.30s CPU      3.02s WALL (    8920 calls)

     Called by h_psi:
     h_psi:pot    :    149.08s CPU    149.05s WALL (    9136 calls)
     h_psi:calbec :     20.64s CPU     20.33s WALL (    9136 calls)
     vloc_psi     :    112.80s CPU    113.01s WALL (    9136 calls)
     add_vuspsi   :     15.64s CPU     15.68s WALL (    9136 calls)

     General routines
     calbec       :     32.14s CPU     31.85s WALL (   12592 calls)
     fft          :      0.12s CPU      0.14s WALL (     158 calls)
     ffts         :      0.00s CPU      0.01s WALL (      11 calls)
     fftw         :    124.86s CPU    124.93s WALL (  242270 calls)


     PWSCF        :  4m34.47s CPU     4m38.21s WALL


   This run was terminated on:  11:39:59   3Dec2020            

=------------------------------------------------------------------------------=
   JOB DONE.
=------------------------------------------------------------------------------=
