
     Program PWSCF v.6.3 starts on  4Dec2020 at  0:47:57 

     This program is part of the open-source Quantum ESPRESSO suite
     for quantum simulation of materials; please cite
         "P. Giannozzi et al., J. Phys.:Condens. Matter 21 395502 (2009);
         "P. Giannozzi et al., J. Phys.:Condens. Matter 29 465901 (2017);
          URL http://www.quantum-espresso.org", 
     in publications or presentations arising from this work. More details at
     http://www.quantum-espresso.org/quote

     Serial version
     Waiting for input...
     Reading input from standard input
Warning: card  &IONS ignored
Warning: card  / ignored
Warning: card  &CELL ignored
Warning: card     PRESS = 0, ignored
Warning: card  / ignored

     Current dimensions of program PWSCF are:
     Max number of different atomic species (ntypx) = 10
     Max number of k-points (npk) =  40000
     Max angular momentum in pseudopotentials (lmaxx) =  3
               file P.pbe-n-kjpaw_psl.0.1.UPF: wavefunction(s)  3P renormalized

     G-vector sticks info
     --------------------
     sticks:   dense  smooth     PW     G-vecs:    dense   smooth      PW
     Sum         645     645    259                72741    72741   18133



     bravais-lattice index     =            0
     lattice parameter (alat)  =       8.6216  a.u.
     unit-cell volume          =    2348.7561 (a.u.)^3
     number of atoms/cell      =            4
     number of atomic types    =            1
     number of electrons       =        20.00
     number of Kohn-Sham states=           14
     kinetic-energy cutoff     =      50.0000  Ry
     charge density cutoff     =     150.0000  Ry
     convergence threshold     =      1.0E-06
     mixing beta               =       0.2000
     number of iterations used =            8  plain     mixing
     Exchange-correlation      = SLA PW PBX PBC ( 1  4  3  4 0 0)

     celldm(1)=   8.621623  celldm(2)=   0.000000  celldm(3)=   0.000000
     celldm(4)=   0.000000  celldm(5)=   0.000000  celldm(6)=   0.000000

     crystal axes: (cart. coord. in units of alat)
               a(1) = (   1.011184  -0.000005  -0.001237 )  
               a(2) = (   0.000001   0.721558  -0.000076 )  
               a(3) = (  -0.005627  -0.000469   5.023079 )  

     reciprocal axes: (cart. coord. in units 2 pi/alat)
               b(1) = (  0.988941 -0.000002  0.001108 )  
               b(2) = (  0.000007  1.385890  0.000129 )  
               b(3) = (  0.000244  0.000021  0.199081 )  


     PseudoPot. # 1 for P  read from file:
     ./P.pbe-n-kjpaw_psl.0.1.UPF
     MD5 check sum: eecb1e256d89c9ed77ae4f76a10d2248
     Pseudo is Projector augmented-wave + core cor, Zval =  5.0
     Generated using "atomic" code by A. Dal Corso v.5.0.2 svn rev. 9415
     Shape of augmentation charge: PSQ
     Using radial grid of 1147 points,  4 beta functions with: 
                l(1) =   0
                l(2) =   0
                l(3) =   1
                l(4) =   1
     Q(r) pseudized with 0 coefficients 


     atomic species   valence    mass     pseudopotential
        P              5.00    30.97376     P ( 1.00)

     No symmetry found



   Cartesian axes

     site n.     atom                  positions (alat units)
         1           P   tau(   1) = (   0.0008858   0.3479560   0.0343524  )
         2           P   tau(   2) = (   0.1809332   0.3479283   0.4956348  )
         3           P   tau(   3) = (   0.5069592   0.7087070   0.4952012  )
         4           P   tau(   4) = (   0.6859620   0.7087311   0.0334778  )

     number of k points=   338  gaussian smearing, width (Ry)=  0.0200

     Number of k-points >= 100: set verbosity='high' to print them.

     Dense  grid:    72741 G-vectors     FFT dimensions: (  36,  25, 180)

     Estimated max dynamical RAM per process >       1.10 GB

     Check: negative/imaginary core charge=   -0.000002    0.000000

     Initial potential from superposition of free atoms
     Check: negative starting charge=   -0.000243

     starting charge   19.99936, renormalised to   20.00000

     negative rho (up, down):  2.434E-04 0.000E+00
     Starting wfcs are   16 randomized atomic wfcs

     total cpu time spent up to now is       33.7 secs

     Self-consistent Calculation

     iteration #  1     ecut=    50.00 Ry     beta= 0.20
     Davidson diagonalization with overlap
     ethr =  1.00E-02,  avg # of iterations =  3.1

     Threshold (ethr) on eigenvalues was too large:
     Diagonalizing with lowered threshold

     Davidson diagonalization with overlap
     ethr =  3.43E-04,  avg # of iterations =  2.1

     negative rho (up, down):  2.386E-04 0.000E+00

     total cpu time spent up to now is      201.4 secs

     total energy              =    -222.15060777 Ry
     Harris-Foulkes estimate   =    -222.15718560 Ry
     estimated scf accuracy    <       0.06611523 Ry

     iteration #  2     ecut=    50.00 Ry     beta= 0.20
     Davidson diagonalization with overlap
     ethr =  3.31E-04,  avg # of iterations =  1.0

     negative rho (up, down):  2.345E-04 0.000E+00

     total cpu time spent up to now is      262.9 secs

     total energy              =    -222.14178444 Ry
     Harris-Foulkes estimate   =    -222.15130179 Ry
     estimated scf accuracy    <       0.03893888 Ry

     iteration #  3     ecut=    50.00 Ry     beta= 0.20
     Davidson diagonalization with overlap
     ethr =  1.95E-04,  avg # of iterations =  2.0

     negative rho (up, down):  2.332E-04 0.000E+00

     total cpu time spent up to now is      329.2 secs

     total energy              =    -222.14460931 Ry
     Harris-Foulkes estimate   =    -222.14524128 Ry
     estimated scf accuracy    <       0.00219682 Ry

     iteration #  4     ecut=    50.00 Ry     beta= 0.20
     Davidson diagonalization with overlap
     ethr =  1.10E-05,  avg # of iterations =  4.5

     negative rho (up, down):  2.308E-04 0.000E+00

     total cpu time spent up to now is      419.1 secs

     total energy              =    -222.14458366 Ry
     Harris-Foulkes estimate   =    -222.14486868 Ry
     estimated scf accuracy    <       0.00090243 Ry

     iteration #  5     ecut=    50.00 Ry     beta= 0.20
     Davidson diagonalization with overlap
     ethr =  4.51E-06,  avg # of iterations =  2.2

     negative rho (up, down):  2.306E-04 0.000E+00

     total cpu time spent up to now is      495.0 secs

     total energy              =    -222.14470453 Ry
     Harris-Foulkes estimate   =    -222.14473463 Ry
     estimated scf accuracy    <       0.00014978 Ry

     iteration #  6     ecut=    50.00 Ry     beta= 0.20
     Davidson diagonalization with overlap
     ethr =  7.49E-07,  avg # of iterations =  1.1

     negative rho (up, down):  2.304E-04 0.000E+00

     total cpu time spent up to now is      556.4 secs

     total energy              =    -222.14470069 Ry
     Harris-Foulkes estimate   =    -222.14471215 Ry
     estimated scf accuracy    <       0.00005009 Ry

     iteration #  7     ecut=    50.00 Ry     beta= 0.20
     Davidson diagonalization with overlap
     ethr =  2.50E-07,  avg # of iterations =  2.0

     negative rho (up, down):  2.305E-04 0.000E+00

     total cpu time spent up to now is      629.9 secs

     total energy              =    -222.14470550 Ry
     Harris-Foulkes estimate   =    -222.14470735 Ry
     estimated scf accuracy    <       0.00000943 Ry

     iteration #  8     ecut=    50.00 Ry     beta= 0.20
     Davidson diagonalization with overlap
     ethr =  4.71E-08,  avg # of iterations =  1.2

     negative rho (up, down):  2.305E-04 0.000E+00

     total cpu time spent up to now is      691.6 secs

     total energy              =    -222.14470320 Ry
     Harris-Foulkes estimate   =    -222.14470587 Ry
     estimated scf accuracy    <       0.00000495 Ry

     iteration #  9     ecut=    50.00 Ry     beta= 0.20
     Davidson diagonalization with overlap
     ethr =  2.48E-08,  avg # of iterations =  2.1

     negative rho (up, down):  2.305E-04 0.000E+00

     total cpu time spent up to now is      771.8 secs

     total energy              =    -222.14470499 Ry
     Harris-Foulkes estimate   =    -222.14470517 Ry
     estimated scf accuracy    <       0.00000131 Ry

     iteration # 10     ecut=    50.00 Ry     beta= 0.20
     Davidson diagonalization with overlap
     ethr =  6.53E-09,  avg # of iterations =  1.0

     negative rho (up, down):  2.304E-04 0.000E+00

     total cpu time spent up to now is      833.0 secs

     End of self-consistent calculation

     Number of k-points >= 100: set verbosity='high' to print the bands.

     the Fermi energy is    -1.9325 ev

!    total energy              =    -222.14470433 Ry
     Harris-Foulkes estimate   =    -222.14470502 Ry
     estimated scf accuracy    <       0.00000087 Ry

     total all-electron energy =     -2736.798491 Ry

     The total energy is the sum of the following terms:

     one-electron contribution =    -438.00227082 Ry
     hartree contribution      =     222.80300161 Ry
     xc contribution           =     -23.42296345 Ry
     ewald contribution        =     178.47792154 Ry
     one-center paw contrib.   =    -162.00037302 Ry
     smearing contrib. (-TS)   =      -0.00002018 Ry

     convergence has been achieved in  10 iterations

     negative rho (up, down):  2.304E-04 0.000E+00

     Forces acting on atoms (cartesian axes, Ry/au):

     atom    1 type  1   force =    -0.00035090   -0.00005208    0.00027544
     atom    2 type  1   force =     0.00018670    0.00000475   -0.00028527
     atom    3 type  1   force =    -0.00014724    0.00005173   -0.00028090
     atom    4 type  1   force =     0.00031144   -0.00000440    0.00029073

     Total force =     0.000776     Total SCF correction =     0.001815
     SCF correction compared to forces is large: reduce conv_thr to get better values


     Computing stress (Cartesian axis) and pressure


     negative rho (up, down):  2.304E-04 0.000E+00
          total   stress  (Ry/bohr**3)                   (kbar)     P=    0.30
   0.00000117   0.00000000   0.00000006          0.17      0.00      0.01
   0.00000000   0.00000731   0.00000009          0.00      1.08      0.01
   0.00000006   0.00000009  -0.00000241          0.01      0.01     -0.36


     Writing output data file phosphorene.save/

     init_run     :     32.33s CPU     33.30s WALL (       1 calls)
     electrons    :    796.14s CPU    799.42s WALL (       1 calls)
     forces       :     12.39s CPU     12.42s WALL (       1 calls)
     stress       :     25.02s CPU     25.19s WALL (       1 calls)

     Called by init_run:
     wfcinit      :     30.25s CPU     31.19s WALL (       1 calls)
     potinit      :      0.62s CPU      0.62s WALL (       1 calls)
     hinit0       :      1.36s CPU      1.39s WALL (       1 calls)

     Called by electrons:
     c_bands      :    684.72s CPU    687.04s WALL (      11 calls)
     sum_band     :    109.08s CPU    109.64s WALL (      11 calls)
     v_of_rho     :      0.69s CPU      0.69s WALL (      11 calls)
     newd         :      0.48s CPU      0.80s WALL (      11 calls)
     PAW_pot      :      1.31s CPU      1.31s WALL (      11 calls)
     mix_rho      :      0.11s CPU      0.11s WALL (      11 calls)

     Called by c_bands:
     init_us_2    :     20.03s CPU     19.77s WALL (    8450 calls)
     cegterg      :    656.62s CPU    657.22s WALL (    3718 calls)

     Called by sum_band:
     sum_band:bec :      0.06s CPU      0.04s WALL (    3718 calls)
     addusdens    :      0.36s CPU      0.68s WALL (      11 calls)

     Called by *egterg:
     h_psi        :    469.59s CPU    471.76s WALL (   11524 calls)
     s_psi        :     51.06s CPU     50.39s WALL (   11524 calls)
     g_psi        :      2.78s CPU      3.24s WALL (    7468 calls)
     cdiaghg      :      2.33s CPU      2.56s WALL (   10848 calls)

     Called by h_psi:
     h_psi:pot    :    466.69s CPU    468.19s WALL (   11524 calls)
     h_psi:calbec :     65.08s CPU     65.36s WALL (   11524 calls)
     vloc_psi     :    352.88s CPU    352.94s WALL (   11524 calls)
     add_vuspsi   :     48.73s CPU     49.84s WALL (   11524 calls)

     General routines
     calbec       :    103.39s CPU    103.14s WALL (   16932 calls)
     fft          :      0.34s CPU      0.31s WALL (     148 calls)
     ffts         :      0.00s CPU      0.03s WALL (      11 calls)
     fftw         :    385.95s CPU    386.13s WALL (  309894 calls)


     PWSCF        : 14m26.69s CPU    14m57.65s WALL


   This run was terminated on:   1: 2:55   4Dec2020            

=------------------------------------------------------------------------------=
   JOB DONE.
=------------------------------------------------------------------------------=
